12
MA-Pb-I	Energy:   -1276.1075509
C          2.56758        3.60344        2.86524
N          3.94420        3.06307        2.80586
H          2.57183        4.66513        2.57934
H          2.16986        3.47934        3.90358
H          1.92470        3.04960        2.15055
H          4.54570        3.48708        3.53559
H          4.42465        3.27980        1.87913
H          3.99235        2.03173        2.90724
Pb         0.20132        0.10512        0.06425
I          0.12440        0.04849        3.24563
I          0.11943        3.22902       -0.03566
I          3.39986        0.06074        0.25669
