12
MA-Pb-I	Energy:   -1273.5868238
C          3.23128        2.42551        3.39429
N          3.03443        3.38092        2.28209
H          3.22409        1.40112        3.00549
H          2.43652        2.57552        4.13132
H          4.20405        2.66195        3.86549
H          2.18121        3.17758        1.72959
H          3.86586        3.40728        1.66185
H          2.87819        4.34219        2.63501
Pb         6.15895        5.14871        5.54166
I         -0.05901        2.01516        5.64008
I          6.12312        5.01378        2.40932
I          3.04187        5.29454        5.41384
