12
MA-Pb-I	Energy:   -1278.5902618
C          3.64686        2.90305        3.63011
N          2.70486        3.16831        2.51258
H          3.36316        1.95524        4.11005
H          3.58957        3.73313        4.34918
H          4.67023        2.82002        3.22980
H          1.73425        3.30588        2.84877
H          2.67192        2.37142        1.83046
H          2.93406        4.04353        1.96596
Pb         6.11052       -0.09357       -5.99332
I         -0.05462       -0.09932        3.48830
I          6.13091        3.01285        0.34374
I          3.04706       -0.08120        0.41881
