12
MA-Pb-I	Energy:   -1276.8713111
C          3.89925        3.05881        3.89696
N          2.59521        2.64414        3.34478
H          4.69974        2.84893        3.16913
H          4.07910        2.47824        4.82016
H          3.84963        4.13682        4.12310
H          2.52743        1.61977        3.12847
H          2.35530        3.14425        2.46011
H          1.82915        2.83829        4.03919
Pb         0.23865        0.07832        6.26782
I          0.20460        0.01272        3.10427
I          0.28039        3.19031       -0.09063
I          3.35222        0.10923        6.28249
