12
MA-Pb-I	Energy:   -1271.3507557
C          3.11448        2.84051        3.10094
N          4.35194        2.73556        3.88417
H          3.15051        2.05572        2.30060
H          3.09133        3.81594        2.60369
H          2.23719        2.71398        3.75474
H          5.20724        2.75760        3.26554
H          4.40363        1.84516        4.40885
H          4.42694        3.47417        4.60015
Pb         0.94260        5.97275        0.89796
I          4.11674       -0.22584        0.90491
I          0.76712        2.89840        0.85618
I          1.10453       -0.23195        4.18553
