12
MA-Pb-I	Energy:   -1272.3219438
C          2.80689        2.60592        3.30988
N          2.45440        1.98357        1.99042
H          3.62823        2.03298        3.80219
H          1.92764        2.64268        3.97359
H          3.21154        3.61765        3.05456
H          2.09571        1.00342        2.04225
H          3.26839        1.93606        1.32578
H          1.73828        2.55576        1.54254
Pb         5.74787        4.69057        5.82173
I          5.83275        1.63947        5.95136
I          5.90385        4.37051        2.62259
I          2.66410        4.85041        5.90092
