12
MA-Pb-I	Energy:   -1241.6054940
C          2.99152        3.94639        3.12278
N          3.21393        2.62831        2.50010
H          1.90427        4.15172        2.98152
H          3.61120        4.68951        2.58429
H          3.26122        3.91040        4.21663
H          2.47034        2.46588        1.74099
H          3.02734        1.85238        3.24703
H          4.19496        2.47788        2.12113
Pb        -0.33765        2.11848        4.61381
I          5.94895       -1.02093        4.75875
I          6.23805        2.46464        1.26274
I          2.72935        1.43297        5.41998
