12
MA-Pb-I	Energy:   -1276.9825615
C          3.57371        2.56867        3.71533
N          3.09472        3.39122        2.57161
H          3.40425        3.13503        4.64592
H          4.65496        2.38510        3.59074
H          3.03121        1.61343        3.75215
H          3.66283        4.27431        2.51822
H          2.09130        3.65955        2.64686
H          3.24105        2.90963        1.66324
Pb         6.02048        5.64951        6.36943
I          5.95975       -0.66693        3.15678
I          5.93862        2.53350        0.10089
I          2.88633       -0.50163        6.28270
