12
MA-Pb-I	Energy:   -1277.5948880
C          3.46778        2.18067        4.40338
N          3.93895        2.88843        3.18734
H          3.06585        1.19542        4.10641
H          2.66213        2.77557        4.87449
H          4.30885        2.04642        5.10502
H          3.14554        2.95511        2.49559
H          4.73237        2.40190        2.70261
H          4.25255        3.86578        3.35658
Pb         0.98504       -0.55916        1.20528
I          4.14038        5.75805        1.26354
I          0.92811        2.54281        1.22888
I          1.01858        5.56234        4.38135
