12
MA-Pb-I	Energy:   -1277.1110685
C          2.19795        3.48793        4.40209
N          2.09995        2.47578        3.31624
H          3.17910        3.98963        4.32460
H          2.10892        2.97532        5.37323
H          1.39363        4.22849        4.28506
H          2.84672        1.75096        3.40011
H          2.23407        2.92766        2.38777
H          1.17963        1.98156        3.30712
Pb         5.06239        5.99611        1.11213
I          1.92327       -0.31346        1.06505
I          5.07091        2.87970        1.19390
I          5.08043       -0.12541        4.25920
