12
MA-Pb-I	Energy:   -1256.3092110
C          3.02956        3.53351        3.08098
N          3.13586        2.18466        2.47826
H          3.15265        4.36248        2.37474
H          3.78723        3.56481        3.87748
H          2.04321        3.61359        3.52833
H          3.99477        2.13472        1.90334
H          2.31025        1.96299        1.91045
H          3.26064        1.50678        3.25224
Pb        -0.23613        5.04582        4.79012
I          6.12238        1.85543        4.66718
I         -0.21447        4.70141        1.43923
I          3.02064       -0.63236        5.32585
