12
MA-Pb-I	Energy:   -1279.6860478
C          3.75530        3.77419        3.31469
N          3.29539        2.36683        3.22183
H          3.39880        4.20585        4.26444
H          3.35086        4.34455        2.46045
H          4.85814        3.80347        3.28835
H          2.25320        2.25164        3.25750
H          3.67120        1.78580        4.01387
H          3.59278        1.90763        2.32308
Pb         0.27466        0.35546        0.05814
I          0.29846        0.37196        3.24914
I          0.24829        3.45499        0.06415
I          3.44301        0.36451        0.07582
