12
MA-Pb-I	Energy:   -1279.8202126
C          2.32011        3.23324        3.12567
N          3.70864        3.20431        3.63811
H          1.80361        4.12050        3.52910
H          1.79519        2.31608        3.44090
H          2.33548        3.28863        2.02598
H          3.77035        3.17102        4.68213
H          4.25209        4.06451        3.35995
H          4.24197        2.36134        3.30425
Pb         5.73311        0.03519        0.10545
I          5.73762        0.05529        3.29050
I          5.72607        3.15017        0.15802
I          2.67347        0.01639        6.39761
