12
MA-Pb-I	Energy:   -1279.1219460
C          2.40737        3.06517        3.01760
N          3.87176        2.96926        3.20555
H          2.08621        4.11637        3.12097
H          1.91156        2.44272        3.78064
H          2.14895        2.69007        2.01524
H          4.18335        3.27212        4.16257
H          4.39085        3.56008        2.51271
H          4.24259        1.98199        3.08967
Pb        -0.42090        0.16062       -0.19295
I          5.90817        0.08483        3.05309
I          5.83882        3.27748       -0.09873
I          2.80163        0.21494        6.18441
