12
MA-Pb-I	Energy:   -1277.3760419
C          2.68261        3.56975        3.22929
N          3.30187        2.30182        3.68467
H          1.81763        3.80256        3.86792
H          2.35477        3.46379        2.18629
H          3.42876        4.37967        3.30394
H          2.60420        1.53939        3.80704
H          3.78961        2.41530        4.60643
H          4.03757        1.93581        3.03878
Pb         5.82559        6.05540        0.16927
I         -0.32978       -0.13215        3.29198
I          5.71695        2.92152        0.11896
I          2.68602       -0.15730        0.13471
