12
MA-Pb-I	Energy:   -1278.1350472
C          4.16845        3.07140        2.71812
N          2.99877        2.18704        2.98829
H          3.79557        4.08626        2.49051
H          4.72268        2.67825        1.84473
H          4.81984        3.08762        3.61002
H          2.37215        2.06773        2.15669
H          2.39719        2.53527        3.78763
H          3.28601        1.22484        3.28312
Pb         0.51017        5.95397       -0.44927
I          0.47161        5.89625        2.73575
I          0.63286        2.83124       -0.45412
I          3.70739       -0.19797        5.94713
