12
MA-Pb-I	Energy:   -1222.3224596
C          2.73152        2.86244        3.80331
N          3.99310        3.64165        3.88531
H          2.98144        1.80664        3.59291
H          2.05673        3.33241        3.03374
H          2.16458        2.94248        4.76066
H          4.28727        4.07509        2.99752
H          4.76172        2.97593        4.18451
H          3.89846        4.42754        4.55767
Pb         3.30894        1.98911        0.60602
I          5.15612        0.56637        3.49621
I          0.13838        2.29603        0.51274
I          3.17513        5.14514        0.51383
