12
MA-Pb-I	Energy:   -1276.6336561
C          2.73706        2.24801        2.35644
N          3.36748        3.38997        1.63074
H          2.28231        2.62418        3.28614
H          3.51055        1.51760        2.61028
H          1.97617        1.78079        1.72117
H          3.74650        4.09531        2.27904
H          2.66446        3.86981        1.02204
H          4.16292        3.09137        1.00088
Pb         0.05519        5.39242        4.88567
I          6.24008        2.30321        5.10815
I          0.02975        5.38809        1.68275
I          3.18393        5.39580        4.85260
