12
MA-Pb-I	Energy:   -1178.6025353
C          3.82438        3.06742        3.69256
N          2.60977        2.91220        2.82334
H          4.69951        3.20981        3.03789
H          3.64399        3.94046        4.31008
H          4.64468       -0.33264        0.42140
H          2.19501        1.96224        2.94801
H          2.84572        3.06712        1.82937
H          1.89028        3.57497        3.12029
Pb         4.30068        1.19594       -1.28593
I          4.67077       -0.01329        2.32855
I          4.97959        3.69693        0.18682
I          1.29907        0.93088        5.08151
